Optimization completed.
-- Stationary point found.

                     Standard orientation:
---------------------------------------------------------------------
Center     Atomic      Atomic             Coordinates (Angstroms)
Number     Number       Type             X           Y           Z
---------------------------------------------------------------------
  1          1           0        0.992552    0.581419    0.524551
  2          8           0        0.690124   -0.072677   -0.094303
  3          8           0       -0.690124   -0.072678    0.094302
  4          1           0       -0.992552    0.581423   -0.524547
---------------------------------------------------------------------

The electronic state is 1-A.
Alpha  occ. eigenvalues --  -20.62996 -20.62961  -1.50079  -1.20585  -0.74692
Alpha  occ. eigenvalues --   -0.69873  -0.61530  -0.49233  -0.48723
Alpha virt. eigenvalues --    0.21578   0.23097   0.35209   1.05494   1.05693
Alpha virt. eigenvalues --    1.07836   1.08413   1.18233   1.21932   1.26527
Alpha virt. eigenvalues --    1.34270   1.43120   1.56712   1.78116   1.81798

Normal termination of Gaussian 09 at Thu Sep  3 17:26:23 2020.
